epoch,step,tst_loss
0,0,4116.02685546875
